# OOMMF: rectangular mesh v1.0
# Segment count: 1
# Begin: Segment
# Begin: Header
# Desc: Time (s) :  1.9284516251997033e-09
# Title: m
# meshtype: rectangular
# meshunit: m
# xbase: 5e-10
# ybase: 5e-10
# zbase: 5e-10
# xstepsize: 1e-09
# ystepsize: 1e-09
# zstepsize: 1e-09
# xmin: 0
# ymin: 0
# zmin: 0
# xmax: 3.0000000000000004e-07
# ymax: 3.0000000000000004e-07
# zmax: 1e-09
# xnodes: 300
# ynodes: 300
# znodes: 1
# ValueRangeMinMag: 1e-08
# ValueRangeMaxMag: 1
# valueunit: 
# valuemultiplier: 1
# End: Header
# Begin: Data Text
0 0 0 
0 0 0 
0 0 0 
0 0 0 
0 0 0 
0 0 0 
0 0 0 
0 0 0 
0 0 0 
0 0 0 
0 0 0 
0 0 0 
0 0 0 
0 0 0 
0 0 0 
0 0 0 
0 0 0 
0 0 0 
0 0 0 
0 0 0 
0 0 0 
0 0 0 
0 0 0 
0 0 0 
0 0 0 
0 0 0 
0 0 0 
0 0 0 
0 0 0 
0 0 0 
0 0 0 
0 0 0 
0 0 0 
0 0 0 
0 0 0 
0 0 0 
0 0 0 
0 0 0 
0 0 0 
0 0 0 
0 0 0 
0 0 0 
0 0 0 
0 0 0 
0 0 0 
0 0 0 
0 0 0 
0 0 0 
0 0 0 
0 0 0 
0 0 0 
0 0 0 
0 0 0 
0 0 0 
0 0 0 
0 0 0 
0 0 0 
0 0 0 
0 0 0 
0 0 0 
0 0 0 
0 0 0 
0 0 0 
0 0 0 
0 0 0 
0 0 0 
0 0 0 
0 0 0 
0 0 0 
0 0 0 
0 0 0 
0 0 0 
0 0 0 
0 0 0 
0 0 0 
0 0 0 
0 0 0 
0 0 0 
0 0 0 
0 0 0 
0 0 0 
0 0 0 
0 0 0 
0 0 0 
0 0 0 
0 0 0 
0 0 0 
0 0 0 
0 0 0 
0 0 0 
0 0 0 
0 0 0 
0 0 0 
0 0 0 
0 0 0 
0 0 0 
0 0 0 
0 0 0 
0 0 0 
0 0 0 
0 0 0 
0 0 0 
0 0 0 
0 0 0 
0 0 0 
0 0 0 
0 0 0 
0 0 0 
0 0 0 
0 0 0 
0 0 0 
0 0 0 
0 0 0 
0 0 0 
0 0 0 
0 0 0 
0 0 0 
0 0 0 
0 0 0 
0 0 0 
0 0 0 
0 0 0 
0 0 0 
0 0 0 
0 0 0 
0 0 0 
0 0 0 
0 0 0 
0 0 0 
0 0 0 
0 0 0 
0 0 0 
0 0 0 
0 0 0 
0 0 0 
0 0 0 
0 0 0 
0 0 0 
0.10120719 0.41121873 0.9059009 
0.062393513 0.40844697 0.9106471 
0.04208659 0.40523708 0.9132424 
0.029855667 0.40234977 0.91499907 
0.021755172 0.39990819 0.916297 
0.01604588 0.39789203 0.9172919 
0.011845189 0.39625442 0.9180644 
0.008648046 0.39495084 0.9186616 
0.0061352104 0.39394584 0.9191133 
0.004087031 0.39321303 0.9194383 
0.0023401089 0.3927342 0.9196491 
0.0007629936 0.39249775 0.91975266 
-0.0007592281 0.39249814 0.9197525 
-0.0023363584 0.39273536 0.9196485 
-0.0040833163 0.39321503 0.91943747 
-0.0061315447 0.39394858 0.919112 
-0.008644448 0.39495438 0.91866004 
-0.011841663 0.39625874 0.9180625 
-0.016042436 0.39789718 0.9172898 
-0.021751827 0.39991406 0.9162946 
-0.029852413 0.4023563 0.91499627 
-0.04208342 0.40524432 0.9132394 
-0.062390383 0.40845475 0.9106438 
-0.10120401 0.41122693 0.90589756 
0 0 0 
0 0 0 
0 0 0 
0 0 0 
0 0 0 
0 0 0 
0 0 0 
0 0 0 
0 0 0 
0 0 0 
0 0 0 
0 0 0 
0 0 0 
0 0 0 
0 0 0 
0 0 0 
0 0 0 
0 0 0 
0 0 0 
0 0 0 
0 0 0 
0 0 0 
0 0 0 
0 0 0 
0 0 0 
0 0 0 
0 0 0 
0 0 0 
0 0 0 
0 0 0 
0 0 0 
0 0 0 
0 0 0 
0 0 0 
0 0 0 
0 0 0 
0 0 0 
0 0 0 
0 0 0 
0 0 0 
0 0 0 
0 0 0 
0 0 0 
0 0 0 
0 0 0 
0 0 0 
0 0 0 
0 0 0 
0 0 0 
0 0 0 
0 0 0 
0 0 0 
0 0 0 
0 0 0 
0 0 0 
0 0 0 
0 0 0 
0 0 0 
0 0 0 
0 0 0 
0 0 0 
0 0 0 
0 0 0 
0 0 0 
0 0 0 
0 0 0 
0 0 0 
0 0 0 
0 0 0 
0 0 0 
0 0 0 
0 0 0 
0 0 0 
0 0 0 
0 0 0 
0 0 0 
0 0 0 
0 0 0 
0 0 0 
0 0 0 
0 0 0 
0 0 0 
0 0 0 
0 0 0 
0 0 0 
0 0 0 
0 0 0 
0 0 0 
0 0 0 
0 0 0 
0 0 0 
0 0 0 
0 0 0 
0 0 0 
0 0 0 
0 0 0 
0 0 0 
0 0 0 
0 0 0 
0 0 0 
0 0 0 
0 0 0 
0 0 0 
0 0 0 
0 0 0 
0 0 0 
0 0 0 
0 0 0 
0 0 0 
0 0 0 
0 0 0 
0 0 0 
0 0 0 
0 0 0 
0 0 0 
0 0 0 
0 0 0 
0 0 0 
0 0 0 
0 0 0 
0 0 0 
0 0 0 
0 0 0 
0 0 0 
0 0 0 
0 0 0 
0 0 0 
0 0 0 
0 0 0 
0 0 0 
0 0 0 
0 0 0 
0 0 0 
0 0 0 
0 0 0 
0 0 0 
0 0 0 
0 0 0 
0 0 0 
0 0 0 
0 0 0 
0 0 0 
0 0 0 
0 0 0 
0 0 0 
0 0 0 
0 0 0 
0 0 0 
0 0 0 
0 0 0 
0 0 0 
0 0 0 
0 0 0 
0 0 0 
0 0 0 
0 0 0 
0 0 0 
0 0 0 
0 0 0 
0 0 0 
0 0 0 
0 0 0 
0 0 0 
0 0 0 
0 0 0 
0 0 0 
0 0 0 
0 0 0 
0 0 0 
0 0 0 
0 0 0 
0 0 0 
0 0 0 
0 0 0 
0 0 0 
0 0 0 
0 0 0 
0 0 0 
0 0 0 
0 0 0 
0 0 0 
0 0 0 
0 0 0 
0 0 0 
0 0 0 
0 0 0 
0 0 0 
0 0 0 
0 0 0 
0 0 0 
0 0 0 
0 0 0 
0 0 0 
0 0 0 
0 0 0 
0 0 0 
0 0 0 
0 0 0 
0 0 0 
0 0 0 
0 0 0 
0 0 0 
0 0 0 
0 0 0 
0 0 0 
0 0 0 
0 0 0 
0 0 0 
0 0 0 
0 0 0 
0 0 0 
0 0 0 
0 0 0 
0 0 0 
0 0 0 
0 0 0 
0 0 0 
0 0 0 
0 0 0 
0 0 0 
0 0 0 
0 0 0 
0 0 0 
0 0 0 
0 0 0 
0 0 0 
0 0 0 
0 0 0 
0 0 0 
0 0 0 
0 0 0 
0 0 0 
0 0 0 
0 0 0 
0 0 0 
0 0 0 
0 0 0 
0 0 0 
0 0 0 
0 0 0 
0 0 0 
0 0 0 
0 0 0 
0 0 0 
0 0 0 
0 0 0 
0 0 0 
0 0 0 
0 0 0 
0 0 0 
0 0 0 
0 0 0 
0 0 0 
0 0 0 
0 0 0 
0 0 0 
0 0 0 
0 0 0 
0 0 0 
0 0 0 
0 0 0 
0 0 0 
0 0 0 
0 0 0 
0 0 0 
0 0 0 
0 0 0 
0.110755764 0.40743643 0.90649265 
0.071606085 0.40319854 0.9123068 
0.05129178 0.397847 0.9160169 
0.039636485 0.39233223 0.91896915 
0.032865785 0.3867595 0.92159474 
0.02946044 0.38097388 0.9241163 
0.028915867 0.37466127 0.9267108 
0.031469144 0.3672678 0.9295828 
0.03848534 0.35766336 0.9330573 
0.054595526 0.34263453 0.93788105 
0.045910086 0.3351711 0.94103813 
0.0352736 0.33032608 0.9432076 
0.026584316 0.32673925 0.94474053 
0.019971676 0.32393184 0.9458696 
0.014974629 0.32169026 0.94672656 
0.011157434 0.31989804 0.94738626 
0.008189647 0.31848276 0.94789326 
0.0058279294 0.31739628 0.9482751 
0.0038890364 0.31660601 0.9485492 
0.0022287937 0.31609026 0.94872653 
0.000727094 0.31583574 0.9488136 
-0.0007231368 0.31583616 0.9488135 
-0.002224853 0.3160915 0.9487261 
-0.003885131 0.31660813 0.9485485 
-0.0058240765 0.31739926 0.94827414 
-0.0081858635 0.3184866 0.9478921 
-0.0111537315 0.3199027 0.94738483 
-0.014971018 0.32169572 0.94672483 
-0.01996817 0.3239381 0.9458676 
-0.02658092 0.32674626 0.94473827 
-0.035270307 0.33033377 0.94320494 
-0.0459069 0.3351795 0.9410352 
-0.05459246 0.34264368 0.93787795 
-0.0384825 0.35767347 0.93305355 
-0.03146652 0.3672787 0.92957854 
-0.028913466 0.3746729 0.92670614 
-0.029458258 0.38098612 0.9241113 
-0.032863818 0.38677236 0.92158943 
-0.039634723 0.3923457 0.9189636 
-0.05129017 0.39786094 0.9160109 
-0.07160454 0.40321288 0.91230047 
-0.11075411 0.4074511 0.9064862 
0 0 0 
0 0 0 
0 0 0 
0 0 0 
0 0 0 
0 0 0 
0 0 0 
0 0 0 
0 0 0 
0 0 0 
0 0 0 
0 0 0 
0 0 0 
0 0 0 
0 0 0 
0 0 0 
0 0 0 
0 0 0 
0 0 0 
0 0 0 
0 0 0 
0 0 0 
0 0 0 
0 0 0 
0 0 0 
0 0 0 
0 0 0 
0 0 0 
0 0 0 
0 0 0 
0 0 0 
0 0 0 
0 0 0 
0 0 0 
0 0 0 
0 0 0 
0 0 0 
0 0 0 
0 0 0 
0 0 0 
0 0 0 
0 0 0 
0 0 0 
0 0 0 
0 0 0 
0 0 0 
0 0 0 
0 0 0 
0 0 0 
0 0 0 
0 0 0 
0 0 0 
0 0 0 
0 0 0 
0 0 0 
0 0 0 
0 0 0 
0 0 0 
0 0 0 
0 0 0 
0 0 0 
0 0 0 
0 0 0 
0 0 0 
0 0 0 
0 0 0 
0 0 0 
0 0 0 
0 0 0 
0 0 0 
0 0 0 
0 0 0 
0 0 0 
0 0 0 
0 0 0 
0 0 0 
0 0 0 
0 0 0 
0 0 0 
0 0 0 
0 0 0 
0 0 0 
0 0 0 
0 0 0 
0 0 0 
0 0 0 
0 0 0 
0 0 0 
0 0 0 
0 0 0 
0 0 0 
0 0 0 
0 0 0 
0 0 0 
0 0 0 
0 0 0 
0 0 0 
0 0 0 
0 0 0 
0 0 0 
0 0 0 
0 0 0 
0 0 0 
0 0 0 
0 0 0 
0 0 0 
0 0 0 
0 0 0 
0 0 0 
0 0 0 
0 0 0 
0 0 0 
0 0 0 
0 0 0 
0 0 0 
0 0 0 
0 0 0 
0 0 0 
0 0 0 
0 0 0 
0 0 0 
0 0 0 
0 0 0 
0 0 0 
0 0 0 
0 0 0 
0 0 0 
0 0 0 
0 0 0 
0 0 0 
0 0 0 
0 0 0 
0 0 0 
0 0 0 
0 0 0 
0 0 0 
0 0 0 
0 0 0 
0 0 0 
0 0 0 
0 0 0 
0 0 0 
0 0 0 
0 0 0 
0 0 0 
0 0 0 
0 0 0 
0 0 0 
0 0 0 
0 0 0 
0 0 0 
0 0 0 
0 0 0 
0 0 0 
0 0 0 
0 0 0 
0 0 0 
0 0 0 
0 0 0 
0 0 0 
0 0 0 
0 0 0 
0 0 0 
0 0 0 
0 0 0 
0 0 0 
0 0 0 
0 0 0 
0 0 0 
0 0 0 
0 0 0 
0 0 0 
0 0 0 
0 0 0 
0 0 0 
0 0 0 
0 0 0 
0 0 0 
0 0 0 
0 0 0 
0 0 0 
0 0 0 
0 0 0 
0 0 0 
0 0 0 
0 0 0 
0 0 0 
0 0 0 
0 0 0 
0 0 0 
0 0 0 
0 0 0 
0 0 0 
0 0 0 
0 0 0 
0 0 0 
0 0 0 
0 0 0 
0 0 0 
0 0 0 
0 0 0 
0 0 0 
0 0 0 
0 0 0 
0 0 0 
0 0 0 
0 0 0 
0 0 0 
0 0 0 
0 0 0 
0 0 0 
0 0 0 
0 0 0 
0 0 0 
0 0 0 
0 0 0 
0 0 0 
0 0 0 
0 0 0 
0 0 0 
0 0 0 
0 0 0 
0 0 0 
0 0 0 
0 0 0 
0 0 0 
0 0 0 
0 0 0 
0 0 0 
0 0 0 
0 0 0 
0 0 0 
0 0 0 
0 0 0 
0 0 0 
0 0 0 
0 0 0 
0 0 0 
0 0 0 
0 0 0 
0 0 0 
0 0 0 
0 0 0 
0 0 0 
0 0 0 
0 0 0 
0 0 0 
0 0 0 
0 0 0 
0 0 0 
0 0 0 
0 0 0 
0.11997853 0.40211877 0.90769255 
0.08096586 0.39645964 0.9144749 
0.061437916 0.38885465 0.9192484 
0.051585387 0.3802471 0.92344534 
0.048252862 0.37037617 0.92762774 
0.051372364 0.35811898 0.93226165 
0.06485071 0.34012797 0.9381404 
0.05502912 0.33030158 0.94227004 
0.04408626 0.32295617 0.9453866 
0.035790388 0.31654686 0.9479015 
0.030301923 0.31048593 0.9500949 
0.027273528 0.30442566 0.95214564 
0.026459098 0.2980561 0.9541816 
0.027783388 0.29103407 0.9563092 
0.031172557 0.2829954 0.9586146 
0.03551715 0.27390438 0.96110094 
0.032776147 0.267044 0.9631268 
0.027363354 0.2619363 0.96469724 
0.021807157 0.25802198 0.965893 
0.016972374 0.2549468 0.9668061 
0.013008284 0.25249866 0.96750987 
0.009823614 0.25054735 0.96805453 
0.007269014 0.24900964 0.96847373 
0.0051969565 0.24783067 0.9687895 
0.0034768428 0.24697363 0.96901596 
0.0019952022 0.24641451 0.9691625 
0.00065146794 0.24613865 0.96923447 
-0.0006471577 0.2461391 0.96923435 
-0.0019909109 0.2464159 0.9691622 
-0.0034725927 0.24697593 0.9690154 
-0.005192759 0.24783385 0.9687886 
-0.007264892 0.24901377 0.9684728 
-0.009819583 0.25055233 0.9680532 
-0.013004355 0.2525045 0.9675083 
-0.016968565 0.2549535 0.9668045 
-0.02180348 0.25802952 0.96589106 
-0.027359815 0.26194462 0.964695 
-0.032772765 0.26705316 0.9631244 
-0.035513934 0.27391434 0.9610982 
-0.031169552 0.28300622 0.95861155 
-0.027780613 0.29104573 0.9563058 
-0.026456555 0.29806846 0.95417786 
-0.027271215 0.3044387 0.9521415 
-0.030299844 0.3104996 0.9500905 
-0.03578853 0.31656113 0.9478968 
-0.04408461 0.32297105 0.94538164 
-0.055027645 0.33031693 0.9422647 
-0.06484943 0.3401439 0.93813473 
-0.051371492 0.3581356 0.93225527 
-0.048252333 0.37039334 0.9276209 
-0.05158514 0.38026464 0.923438 
-0.06143788 0.38887256 0.9192408 
-0.08096591 0.39647782 0.914467 
-0.119978406 0.40213713 0.9076843 
0 0 0 
0 0 0 
0 0 0 
0 0 0 
0 0 0 
0 0 0 
0 0 0 
0 0 0 
0 0 0 
0 0 0 
0 0 0 
0 0 0 
0 0 0 
0 0 0 
0 0 0 
0 0 0 
0 0 0 
0 0 0 
0 0 0 
0 0 0 
0 0 0 
0 0 0 
0 0 0 
0 0 0 
0 0 0 
0 0 0 
0 0 0 
0 0 0 
0 0 0 
0 0 0 
0 0 0 
0 0 0 
0 0 0 
0 0 0 
0 0 0 
0 0 0 
0 0 0 
0 0 0 
0 0 0 
0 0 0 
0 0 0 
0 0 0 
0 0 0 
0 0 0 
0 0 0 
0 0 0 
0 0 0 
0 0 0 
0 0 0 
0 0 0 
0 0 0 
0 0 0 
0 0 0 
0 0 0 
0 0 0 
0 0 0 
0 0 0 
0 0 0 
0 0 0 
0 0 0 
0 0 0 
0 0 0 
0 0 0 
0 0 0 
0 0 0 
0 0 0 
0 0 0 
0 0 0 
0 0 0 
0 0 0 
0 0 0 
0 0 0 
0 0 0 
0 0 0 
0 0 0 
0 0 0 
0 0 0 
0 0 0 
0 0 0 
0 0 0 
0 0 0 
0 0 0 
0 0 0 
0 0 0 
0 0 0 
0 0 0 
0 0 0 
0 0 0 
0 0 0 
0 0 0 
0 0 0 
0 0 0 
0 0 0 
0 0 0 
0 0 0 
0 0 0 
0 0 0 
0 0 0 
0 0 0 
0 0 0 
0 0 0 
0 0 0 
0 0 0 
0 0 0 
0 0 0 
0 0 0 
0 0 0 
0 0 0 
0 0 0 
0 0 0 
0 0 0 
0 0 0 
0 0 0 
0 0 0 
0 0 0 
0 0 0 
0 0 0 
0 0 0 
0 0 0 
0 0 0 
0 0 0 
0 0 0 
0 0 0 
0 0 0 
0 0 0 
0 0 0 
0 0 0 
0 0 0 
0 0 0 
0 0 0 
0 0 0 
0 0 0 
0 0 0 
0 0 0 
0 0 0 
0 0 0 
0 0 0 
0 0 0 
0 0 0 
0 0 0 
0 0 0 
0 0 0 
0 0 0 
0 0 0 
0 0 0 
0 0 0 
0 0 0 
0 0 0 
0 0 0 
0 0 0 
0 0 0 
0 0 0 
0 0 0 
0 0 0 
0 0 0 
0 0 0 
0 0 0 
0 0 0 
0 0 0 
0 0 0 
0 0 0 
0 0 0 
0 0 0 
0 0 0 
0 0 0 
0 0 0 
0 0 0 
0 0 0 
0 0 0 
0 0 0 
0 0 0 
0 0 0 
0 0 0 
0 0 0 
0 0 0 
0 0 0 
0 0 0 
0 0 0 
0 0 0 
0 0 0 
0 0 0 
0 0 0 
0 0 0 
0 0 0 
0 0 0 
0 0 0 
0 0 0 
0 0 0 
0 0 0 
0 0 0 
0 0 0 
0 0 0 
0 0 0 
0 0 0 
0 0 0 
0 0 0 
0 0 0 
0 0 0 
0 0 0 
0 0 0 
0 0 0 
0 0 0 
0 0 0 
0 0 0 
0 0 0 
0 0 0 
0 0 0 
0 0 0 
0 0 0 
0 0 0 
0 0 0 
0 0 0 
0 0 0 
0 0 0 
0 0 0 
0 0 0 
0 0 0 
0 0 0 
0 0 0 
0 0 0 
0 0 0 
0 0 0 
0 0 0 
0 0 0 
0 0 0 
0 0 0 
0 0 0 
0 0 0 
0 0 0 
0 0 0 
0 0 0 
0 0 0 
0 0 0 
0 0 0 
0 0 0 
0 0 0 
0 0 0 
0 0 0 
0 0 0 
0 0 0 
0 0 0 
0.12876056 0.39847803 0.90809476 
0.089592986 0.39161772 0.9157558 
0.07047851 0.38204286 0.92145324 
0.062119644 0.37058392 0.9267194 
0.062339652 0.3563449 0.93227255 
0.074227646 0.33590502 0.9389665 
0.06398352 0.32396105 0.9439044 
0.053435538 0.31417003 0.9478618 
0.046349358 0.30474734 0.9513048 
0.042996757 0.29489744 0.95456105 
0.043037213 0.2840748 0.95783573 
0.04510371 0.27218035 0.9611886 
0.041088656 0.26264614 0.964017 
0.03518178 0.25478435 0.9663577 
0.029799392 0.24788533 0.968331 
0.025780529 0.24148329 0.97006255 
0.023295874 0.23525922 0.97165346 
0.02228568 0.22897053 0.97317827 
0.02257248 0.22243458 0.9746863 
0.02374066 0.21558788 0.9761958 
0.0247181 0.20869407 0.9776686 
0.023291713 0.20275125 0.9789533 
0.02029118 0.19788457 0.98001534 
0.016799666 0.1939435 0.9808689 
0.013453163 0.19075239 0.981546 
0.010514341 0.1881696 0.98208034 
0.008040029 0.18609144 0.98249954 
0.0059933704 0.1844444 0.98282474 
0.0043017985 0.1831769 0.98307055 
0.0028831267 0.18225335 0.9832474 
0.0016556858 0.18164988 0.9833619 
0.000541083 0.18135187 0.98341817 
-0.0005362655 0.18135238 0.9834181 
-0.0016508874 0.18165137 0.9833616 
-0.0028783712 0.18225585 0.983247 
-0.004297109 0.1831804 0.98306996 
-0.0059887627 0.18444887 0.9828239 
-0.008035521 0.18609686 0.9824986 
-0.010509954 0.18817596 0.98207915 
-0.013448915 0.19075967 0.9815447 
-0.016795572 0.1939517 0.9808673 
-0.020287251 0.19789366 0.98001355 
-0.023287974 0.20276122 0.97895133 
-0.024714567 0.20870492 0.9776664 
-0.023737356 0.21559958 0.9761933 
-0.02256942 0.22244711 0.9746835 
-0.022282869 0.22898382 0.97317517 
-0.023293322 0.23527327 0.9716502 
-0.025778238 0.241498 0.9700589 
-0.029797362 0.24790068 0.9683271 
-0.03518 0.2548003 0.96635354 
-0.041087132 0.2626627 0.96401256 
-0.04510247 0.2721975 0.96118385 
-0.043036316 0.28409258 0.95783055 
-0.04299619 0.2949157 0.95455545 
-0.046349093 0.30476606 0.9512989 
-0.053435527 0.3141891 0.9478554 
-0.063983716 0.32398045 0.9438976 
-0.07422806 0.33592483 0.9389595 
-0.06234056 0.3563652 0.9322647 
-0.062120926 0.37060454 0.9267111 
-0.07048004 0.38206375 0.9214445 
-0.08959461 0.39163876 0.9157467 
-0.12876198 0.3984992 0.9080853 
0 0 0 
0 0 0 
0 0 0 
0 0 0 
0 0 0 
0 0 0 
0 0 0 
0 0 0 
0 0 0 
0 0 0 
0 0 0 
0 0 0 
0 0 0 
0 0 0 
0 0 0 
0 0 0 
0 0 0 
0 0 0 
0 0 0 
0 0 0 
0 0 0 
0 0 0 
0 0 0 
0 0 0 
0 0 0 
0 0 0 
0 0 0 
0 0 0 
0 0 0 
0 0 0 
0 0 0 
0 0 0 
0 0 0 
0 0 0 
0 0 0 
0 0 0 
0 0 0 
0 0 0 
0 0 0 
0 0 0 
0 0 0 
0 0 0 
0 0 0 
0 0 0 
0 0 0 
0 0 0 
0 0 0 
0 0 0 
0 0 0 
0 0 0 
0 0 0 
0 0 0 
0 0 0 
0 0 0 
0 0 0 
0 0 0 
0 0 0 
0 0 0 
0 0 0 
0 0 0 
0 0 0 
0 0 0 
0 0 0 
0 0 0 
0 0 0 
0 0 0 
0 0 0 
0 0 0 
0 0 0 
0 0 0 
0 0 0 
0 0 0 
0 0 0 
0 0 0 
0 0 0 
0 0 0 
0 0 0 
0 0 0 
0 0 0 
0 0 0 
0 0 0 
0 0 0 
0 0 0 
0 0 0 
0 0 0 
0 0 0 
0 0 0 
0 0 0 
0 0 0 
0 0 0 
0 0 0 
0 0 0 
0 0 0 
0 0 0 
0 0 0 
0 0 0 
0 0 0 
0 0 0 
0 0 0 
0 0 0 
0 0 0 
0 0 0 
0 0 0 
0 0 0 
0 0 0 
0 0 0 
0 0 0 
0 0 0 
0 0 0 
0 0 0 
0 0 0 
0 0 0 
0 0 0 
0 0 0 
0 0 0 
0 0 0 
0 0 0 
0 0 0 
0 0 0 
0 0 0 
0 0 0 
0 0 0 
0 0 0 
0 0 0 
0 0 0 
0 0 0 
0 0 0 
0 0 0 
0 0 0 
0 0 0 
0 0 0 
0 0 0 
0 0 0 
0 0 0 
0 0 0 
0 0 0 
0 0 0 
0 0 0 
0 0 0 
0 0 0 
0 0 0 
0 0 0 
0 0 0 
0 0 0 
0 0 0 
0 0 0 
0 0 0 
0 0 0 
0 0 0 
0 0 0 
0 0 0 
0 0 0 
0 0 0 
0 0 0 
0 0 0 
0 0 0 
0 0 0 
0 0 0 
0 0 0 
0 0 0 
0 0 0 
0 0 0 
0 0 0 
0 0 0 
0 0 0 
0 0 0 
0 0 0 
0 0 0 
0 0 0 
0 0 0 
0 0 0 
0 0 0 
0 0 0 
0 0 0 
0 0 0 
0 0 0 
0 0 0 
0 0 0 
0 0 0 
0 0 0 
0 0 0 
0 0 0 
0 0 0 
0 0 0 
0 0 0 
0 0 0 
0 0 0 
0 0 0 
0 0 0 
0 0 0 
0 0 0 
0 0 0 
0 0 0 
0 0 0 
0 0 0 
0 0 0 
0 0 0 
0 0 0 
0 0 0 
0 0 0 
0 0 0 
0 0 0 
0 0 0 
0 0 0 
0 0 0 
0 0 0 
0 0 0 
0 0 0 
0 0 0 
0 0 0 
0 0 0 
0 0 0 
0 0 0 
0 0 0 
0 0 0 
0 0 0 
0 0 0 
0 0 0 
0 0 0 
0 0 0 
0 0 0 
0 0 0 
0 0 0 
0 0 0 
0 0 0 
0 0 0 
0 0 0 
0 0 0 
0 0 0 
0 0 0 
0 0 0 
0 0 0 
0.13411029 0.39166677 0.9102811 
0.09581311 0.3833924 0.91860235 
0.07867616 0.37129277 0.9251767 
0.07426527 0.35565603 0.9316617 
0.0835148 0.3332735 0.9391241 
0.07227253 0.3195989 0.94479275 
0.061603766 0.30776718 0.94946533 
0.055110727 0.2958158 0.95365393 
0.052914888 0.2828661 0.95769876 
0.053590517 0.26871607 0.96172756 
0.048953887 0.25691152 0.96519434 
0.043055598 0.2465747 0.9681669 
0.038218062 0.2368593 0.97079206 
0.03515314 0.2272331 0.9732058 
0.03367979 0.21744365 0.9754917 
0.032744236 0.207663 0.97765225 
0.030110717 0.19886267 0.9795647 
0.026529154 0.19106607 0.98121864 
0.023017447 0.1840205 0.98265284 
0.020172816 0.17746393 0.98392063 
0.018230697 0.17118153 0.9850709 
0.017202249 0.16501367 0.98614126 
0.016934041 0.15886892 0.98715454 
0.017078863 0.15276223 0.9881154 
0.017026018 0.14687991 0.98900783 
0.016038515 0.14158805 0.9897958 
0.014238143 0.13702393 0.99046546 
0.012046812 0.1331703 0.99102 
0.009821641 0.1299544 0.99147135 
0.007771401 0.12729634 0.9918343 
0.0059841275 0.12512656 0.9921228 
0.004472662 0.12338959 0.99234825 
0.0032093422 0.12204371 0.9925196 
0.0021470971 0.121058404 0.9926431 
0.001230738 0.12041263 0.9927232 
0.00040230306 0.1200932 0.99276257 
-0.00039681178 0.12009375 0.9927625 
-0.0012252701 0.12041428 0.992723 
-0.002141678 0.12106115 0.9926428 
-0.0032039958 0.122047536 0.99251914 
-0.0044674124 0.1233945 0.99234766 
-0.005978991 0.1251325 0.99212205 
-0.007766404 0.12730335 0.9918335 
-0.009816808 0.1299624 0.9914704 
-0.012042157 0.1331793 0.9910189 
-0.014233683 0.1370339 0.9904641 
-0.016034275 0.14159898 0.9897943 
-0.017022017 0.14689179 0.98900616 
-0.01707512 0.15277502 0.98811346 
-0.016930567 0.15888259 0.9871524 
-0.017199058 0.16502817 0.9861389 
-0.018227795 0.17119679 0.98506826 
-0.020170214 0.17747994 0.9839178 
-0.023015149 0.1840372 0.9826498 
-0.026527157 0.1910834 0.9812153 
-0.03010903 0.19888064 0.9795611 
-0.032742877 0.20768158 0.9776484 
-0.033678785 0.2174628 0.9754875 
-0.03515248 0.22725275 0.9732012 
-0.038217727 0.23687941 0.9707871 
-0.04305558 0.24659522 0.96816164 
-0.048954178 0.25693244 0.9651888 
-0.053591114 0.26873732 0.9617215 
-0.05291587 0.28288773 0.9576923 
-0.055112064 0.29583773 0.953647 
-0.061605394 0.3077894 0.949458 
-0.07227439 0.3196213 0.944785 
-0.083516866 0.33329612 0.9391159 
-0.07426785 0.35567895 0.9316528 
-0.078679055 0.37131578 0.9251672 
-0.09581613 0.38341543 0.9185924 
-0.13411307 0.39168978 0.91027075 
0 0 0 
0 0 0 
0 0 0 
0 0 0 
0 0 0 
0 0 0 
0 0 0 
0 0 0 
0 0 0 
0 0 0 
0 0 0 
0 0 0 
0 0 0 
0 0 0 
0 0 0 
0 0 0 
0 0 0 
0 0 0 
0 0 0 
0 0 0 
0 0 0 
0 0 0 
0 0 0 
0 0 0 
0 0 0 
0 0 0 
0 0 0 
0 0 0 
0 0 0 
0 0 0 
0 0 0 
0 0 0 
0 0 0 
0 0 0 
0 0 0 
0 0 0 
0 0 0 
0 0 0 
0 0 0 
0 0 0 
0 0 0 
0 0 0 
0 0 0 
0 0 0 
0 0 0 
0 0 0 
0 0 0 
0 0 0 
0 0 0 
0 0 0 
0 0 0 
0 0 0 
0 0 0 
0 0 0 
0 0 0 
0 0 0 
0 0 0 
0 0 0 
0 0 0 
0 0 0 
0 0 0 
0 0 0 
0 0 0 
0 0 0 
0 0 0 
0 0 0 
0 0 0 
0 0 0 
0 0 0 
0 0 0 
0 0 0 
0 0 0 
0 0 0 
0 0 0 
0 0 0 
0 0 0 
0 0 0 
0 0 0 
0 0 0 
0 0 0 
0 0 0 
0 0 0 
0 0 0 
0 0 0 
0 0 0 
0 0 0 
0 0 0 
0 0 0 
0 0 0 
0 0 0 
0 0 0 
0 0 0 
0 0 0 
0 0 0 
0 0 0 
0 0 0 
0 0 0 
0 0 0 
0 0 0 
0 0 0 
0 0 0 
0 0 0 
0 0 0 
0 0 0 
0 0 0 
0 0 0 
0 0 0 
0 0 0 
0 0 0 
0 0 0 
0 0 0 
0 0 0 
0 0 0 
0 0 0 
0 0 0 
0 0 0 
0 0 0 
0 0 0 
0 0 0 
0 0 0 
0 0 0 
0 0 0 
0 0 0 
0 0 0 
0 0 0 
0 0 0 
0 0 0 
0 0 0 
0 0 0 
0 0 0 
0 0 0 
0 0 0 
0 0 0 
0 0 0 
0 0 0 
0 0 0 
0 0 0 
0 0 0 
0 0 0 
0 0 0 
0 0 0 
0 0 0 
0 0 0 
0 0 0 
0 0 0 
0 0 0 
0 0 0 
0 0 0 
0 0 0 
0 0 0 
0 0 0 
0 0 0 
0 0 0 
0 0 0 
0 0 0 
0 0 0 
0 0 0 
0 0 0 
0 0 0 
0 0 0 
0 0 0 
0 0 0 
0 0 0 
0 0 0 
0 0 0 
0 0 0 
0 0 0 
0 0 0 
0 0 0 
0 0 0 
0 0 0 
0 0 0 
0 0 0 
0 0 0 
0 0 0 
0 0 0 
0 0 0 
0 0 0 
0 0 0 
0 0 0 
0 0 0 
0 0 0 
0 0 0 
0 0 0 
0 0 0 
0 0 0 
0 0 0 
0 0 0 
0 0 0 
0 0 0 
0 0 0 
0 0 0 
0 0 0 
0 0 0 
0 0 0 
0 0 0 
0 0 0 
0 0 0 
0 0 0 
0 0 0 
0 0 0 
0 0 0 
0 0 0 
0 0 0 
0 0 0 
0 0 0 
0 0 0 
0 0 0 
0 0 0 
0 0 0 
0 0 0 
0 0 0 
0 0 0 
0 0 0 
0 0 0 
0 0 0 
0 0 0 
0 0 0 
0 0 0 
0 0 0 
0 0 0 
0 0 0 
0 0 0 
0 0 0 
0.13796888 0.3908748 0.9100447 
0.0994863 0.38194284 0.9188157 
0.08227321 0.36879936 0.92586076 
0.07807323 0.3517364 0.9328377 
0.08801286 0.32738587 0.9407828 
0.07753594 0.3118783 0.9469531 
0.06805156 0.29778224 0.9522052 
0.0631398 0.28297594 0.95704657 
0.061892956 0.26694295 0.96172285 
0.05616743 0.2532713 0.9657634 
0.04978185 0.24092591 0.969266 
0.044852268 0.22898465 0.97239614 
0.041781235 0.216968 0.9752842 
0.03969171 0.2049402 0.9779694 
0.03637245 0.19384232 0.9803583 
0.032517236 0.1836178 0.9824597 
0.029048495 0.17395487 0.9843252 
0.02640253 0.16459133 0.98600847 
0.024515636 0.15541421 0.9875452 
0.022888478 0.14652535 0.9889421 
0.020815233 0.13823286 0.990181 
0.018400932 0.13060397 0.9912639 
0.01603547 0.1235512 0.9922087 
0.014040996 0.11694148 0.9930396 
0.0125838285 0.11064935 0.9937799 
0.011685501 0.10458153 0.99444765 
0.011242142 0.09869466 0.9950543 
0.011030676 0.093014225 0.99560374 
0.010730584 0.08764706 0.99609387 
0.010043975 0.08275081 0.9965197 
0.008958396 0.07841394 0.99688065 
0.0076325717 0.07465163 0.9971805 
0.0062479204 0.0714381 0.99742556 
0.004938275 0.06873226 0.99762297 
0.0037777952 0.06649171 0.99777985 
0.0027925863 0.06467885 0.9979022 
0.001976545 0.063263044 0.997995 
0.001304251 0.06222072 0.9980616 
0.000739642 0.06153505 0.99810475 
0.00024123283 0.06119516 0.9981258 
-0.00023489216 0.061195772 0.99812573 
-0.00073333114 0.06153688 0.99810463 
-0.0012979982 0.062223766 0.9980615 
-0.001970372 0.06326729 0.99799466 
-0.002786523 0.06468429 0.9979019 
-0.0037718688 0.0664983 0.9977794 
-0.0049325097 0.06874 0.9976225 
-0.006242339 0.07144695 0.9974249 
-0.007627199 0.07466159 0.9971798 
-0.008953253 0.07842498 0.9968799 
-0.010039086 0.0827629 0.9965187 
-0.010725966 0.087660156 0.99609274 
-0.011026349 0.093028314 0.9956025 
-0.011238126 0.098709695 0.9950529 
-0.011681808 0.10459746 0.99444604 
-0.012580466 0.11066611 0.99377805 
-0.014037976 0.116959035 0.9930376 
-0.016032798 0.123569496 0.99220645 
-0.01839862 0.13062295 0.99126136 
-0.02081328 0.13825253 0.9901783 
-0.022886898 0.14654565 0.9889391 
-0.024514442 0.15543509 0.987542 
-0.02640172 0.16461273 0.98600495 
-0.029048052 0.17397672 0.98432124 
-0.03251716 0.1836401 0.9824556 
-0.036372736 0.19386497 0.9803537 
-0.03969237 0.20496322 0.9779646 
-0.041782275 0.21699134 0.975279 
-0.04485368 0.22900829 0.9723906 
-0.049783595 0.24094972 0.9692599 
-0.056169488 0.25329536 0.96575695 
-0.06189533 0.26696718 0.961716 
-0.06314256 0.28300035 0.9570392 
-0.06805464 0.2978067 0.9521973 
-0.07753926 0.31190276 0.9469447 
-0.08801639 0.32741043 0.9407739 
-0.0780773 0.35176107 0.932828 
-0.08227761 0.368824 0.92585063 
-0.09949079 0.38196737 0.91880494 
-0.1379731 0.39089927 0.91003364 
0 0 0 
0 0 0 
0 0 0 
0 0 0 
0 0 0 
0 0 0 
0 0 0 
0 0 0 
0 0 0 
0 0 0 
0 0 0 
0 0 0 
0 0 0 
0 0 0 
0 0 0 
0 0 0 
0 0 0 
0 0 0 
0 0 0 
0 0 0 
0 0 0 
0 0 0 
0 0 0 
0 0 0 
0 0 0 
0 0 0 
0 0 0 
0 0 0 
0 0 0 
0 0 0 
0 0 0 
0 0 0 
0 0 0 
0 0 0 
0 0 0 
0 0 0 
0 0 0 
0 0 0 
0 0 0 
0 0 0 
0 0 0 
0 0 0 
0 0 0 
0 0 0 
0 0 0 
0 0 0 
0 0 0 
0 0 0 
0 0 0 
0 0 0 
0 0 0 
0 0 0 
0 0 0 
0 0 0 
0 0 0 
0 0 0 
0 0 0 
0 0 0 
0 0 0 
0 0 0 
0 0 0 
0 0 0 
0 0 0 
0 0 0 
0 0 0 
0 0 0 
0 0 0 
0 0 0 
0 0 0 
0 0 0 
0 0 0 
0 0 0 
0 0 0 
0 0 0 
0 0 0 
0 0 0 
0 0 0 
0 0 0 
0 0 0 
0 0 0 
0 0 0 
0 0 0 
0 0 0 
0 0 0 
0 0 0 
0 0 0 
0 0 0 
0 0 0 
0 0 0 
0 0 0 
0 0 0 
0 0 0 
0 0 0 
0 0 0 
0 0 0 
0 0 0 
0 0 0 
0 0 0 
0 0 0 
0 0 0 
0 0 0 
0 0 0 
0 0 0 
0 0 0 
0 0 0 
0 0 0 
0 0 0 
0 0 0 
0 0 0 
0 0 0 
0 0 0 
0 0 0 
0 0 0 
0 0 0 
0 0 0 
0 0 0 
0 0 0 
0 0 0 
0 0 0 
0 0 0 
0 0 0 
0 0 0 
0 0 0 
0 0 0 
0 0 0 
0 0 0 
0 0 0 
0 0 0 
0 0 0 
0 0 0 
0 0 0 
0 0 0 
0 0 0 
0 0 0 
0 0 0 
0 0 0 
0 0 0 
0 0 0 
0 0 0 
0 0 0 
0 0 0 
0 0 0 
0 0 0 
0 0 0 
0 0 0 
0 0 0 
0 0 0 
0 0 0 
0 0 0 
0 0 0 
0 0 0 
0 0 0 
0 0 0 
0 0 0 
0 0 0 
0 0 0 
0 0 0 
0 0 0 
0 0 0 
0 0 0 
0 0 0 
0 0 0 
0 0 0 
0 0 0 
0 0 0 
0 0 0 
0 0 0 
0 0 0 
0 0 0 
0 0 0 
0 0 0 
0 0 0 
0 0 0 
0 0 0 
0 0 0 
0 0 0 
0 0 0 
0 0 0 
0 0 0 
0 0 0 
0 0 0 
0 0 0 
0 0 0 
0 0 0 
0 0 0 
0 0 0 
0 0 0 
0 0 0 
0 0 0 
0 0 0 
0 0 0 
0 0 0 
0 0 0 
0 0 0 
0 0 0 
0 0 0 
0 0 0 
0 0 0 
0 0 0 
0 0 0 
0 0 0 
0 0 0 
0 0 0 
0 0 0 
0 0 0 
0 0 0 
0 0 0 
0 0 0 
0 0 0 
0 0 0 
0 0 0 
0 0 0 
0 0 0 
0 0 0 
0 0 0 
0 0 0 
0.14766985 0.39380297 0.9072557 
0.10779539 0.3844589 0.91682684 
0.08901325 0.37065095 0.9244969 
0.08344012 0.35271344 0.93200374 
0.09224807 0.32723105 0.9404309 
0.08118608 0.31074315 0.9470204 
0.07141955 0.29551673 0.9526642 
0.066492334 0.2793436 0.95788616 
0.065488756 0.26168457 0.96292907 
0.06013924 0.24627839 0.9673316 
0.054246627 0.23199885 0.9712023 
0.049719486 0.21795942 0.9746906 
0.046316836 0.20400894 0.9778728 
0.04203192 0.19101112 0.9806876 
0.03753243 0.17883328 0.9831633 
0.033622727 0.16713424 0.98536074 
0.030540777 0.15569896 0.98733234 
0.027939877 0.14455737 0.98910195 
0.025162848 0.13397466 0.9906653 
0.022293968 0.12397698 0.9920346 
0.019652685 0.11445564 0.99323404 
0.017438449 0.10529657 0.994288 
0.015631378 0.09645128 0.995215 
0.014022262 0.087964736 0.9960249 
0.012363003 0.07994292 0.9967228 
0.010651024 0.072423175 0.99731714 
0.009032526 0.06537257 0.9978201 
0.0076626157 0.058725554 0.9982448 
0.0066348943 0.052414723 0.9986034 
0.005962629 0.046390504 0.99890566 
0.005580982 0.04063454 0.9991585 
0.005358507 0.035168175 0.99936706 
0.0051264935 0.030051187 0.99953526 
0.0047440366 0.025360351 0.99966717 
0.004180376 0.02114809 0.99976766 
0.0034923374 0.017432678 0.999842 
0.0027671587 0.014207543 0.9998952 
0.0020819923 0.011453055 0.9999323 
0.0014876262 0.009145073 0.99995714 
0.0010075432 0.007259918 0.9999732 
0.0006433209 0.005776868 0.9999832 
0.00038116152 0.004679196 0.99998903 
0.00019743905 0.003954453 0.99999213 
6.272971e-05 0.0035944493 0.99999356 
-5.5354583e-05 0.003595131 0.99999356 
-0.00019009862 0.0039564944 0.9999922 
-0.0003738892 0.004682591 0.99998903 
-0.0006361425 0.005781607 0.99998313 
-0.0010004913 0.007265977 0.9999731 
-0.0014807297 0.00915243 0.999957 
-0.0020752794 0.011461688 0.99993217 
-0.0027606615 0.014217427 0.9998951 
-0.0034860827 0.017443784 0.9998418 
-0.004174388 0.021160385 0.9997674 
-0.004738339 0.025373803 0.9996668 
-0.0051211086 0.030065756 0.99953485 
-0.0053534545 0.03518382 0.9993665 
-0.0055762874 0.040651217 0.9991579 
-0.005958305 0.04640815 0.9989048 
-0.006630953 0.05243329 0.99860245 
-0.0076590627 0.058744974 0.99824363 
-0.009029377 0.06539281 0.9978188 
-0.010648293 0.07244416 0.9973157 
-0.012360689 0.07996461 0.9967211 
-0.014020373 0.08798709 0.996023 
-0.015629921 0.09647424 0.99521285 
-0.01743742 0.10532006 0.9942855 
-0.019652082 0.11447962 0.9932313 
-0.022293787 0.12400138 0.9920316 
-0.025163084 0.13399942 0.99066186 
-0.027940528 0.14458248 0.9890982 
-0.030541847 0.15572436 0.9873283 
-0.033624202 0.1671599 0.98535633 
-0.037534285 0.17885911 0.98315847 
-0.04203414 0.1910371 0.9806824 
-0.04631943 0.20403509 0.97786725 
-0.049722455 0.21798566 0.9746846 
-0.054249946 0.23202513 0.9711959 
-0.060142864 0.24630465 0.9673246 
-0.065492705 0.26171085 0.96292174 
-0.06649667 0.2793699 0.9578783 
-0.07142419 0.29554293 0.95265573 
-0.081190936 0.3107692 0.94701135 
-0.09225311 0.327257 0.94042134 
-0.0834457 0.35273933 0.9319935 
-0.08901911 0.3706766 0.92448604 
-0.107801296 0.38448432 0.9168155 
-0.14767541 0.39382812 0.9072438 
0 0 0 
0 0 0 
0 0 0 
0 0 0 
0 0 0 
0 0 0 
0 0 0 
0 0 0 
0 0 0 
0 0 0 
0 0 0 
0 0 0 
0 0 0 
0 0 0 
0 0 0 
0 0 0 
0 0 0 
0 0 0 
0 0 0 
0 0 0 
0 0 0 
0 0 0 
0 0 0 
0 0 0 
0 0 0 
0 0 0 
0 0 0 
0 0 0 
0 0 0 
0 0 0 
0 0 0 
0 0 0 
0 0 0 
0 0 0 
0 0 0 
0 0 0 
0 0 0 
0 0 0 
0 0 0 
0 0 0 
0 0 0 
0 0 0 
0 0 0 
0 0 0 
0 0 0 
0 0 0 
0 0 0 
0 0 0 
0 0 0 
0 0 0 
0 0 0 
0 0 0 
0 0 0 
0 0 0 
0 0 0 
0 0 0 
0 0 0 
0 0 0 
0 0 0 
0 0 0 
0 0 0 
0 0 0 
0 0 0 
0 0 0 
0 0 0 
0 0 0 
0 0 0 
0 0 0 
0 0 0 
0 0 0 
0 0 0 
0 0 0 
0 0 0 
0 0 0 
0 0 0 
0 0 0 
0 0 0 
0 0 0 
0 0 0 
0 0 0 
0 0 0 
0 0 0 
0 0 0 
0 0 0 
0 0 0 
0 0 0 
0 0 0 
0 0 0 
0 0 0 
0 0 0 
0 0 0 
0 0 0 
0 0 0 
0 0 0 
0 0 0 
0 0 0 
0 0 0 
0 0 0 
0 0 0 
0 0 0 
0 0 0 
0 0 0 
0 0 0 
0 0 0 
0 0 0 
0 0 0 
0 0 0 
0 0 0 
0 0 0 
0 0 0 
0 0 0 
0 0 0 
0 0 0 
0 0 0 
0 0 0 
0 0 0 
0 0 0 
0 0 0 
0 0 0 
0 0 0 
0 0 0 
0 0 0 
0 0 0 
0 0 0 
0 0 0 
0 0 0 
0 0 0 
0 0 0 
0 0 0 
0 0 0 
0 0 0 
0 0 0 
0 0 0 
0 0 0 
0 0 0 
0 0 0 
0 0 0 
0 0 0 
0 0 0 
0 0 0 
0 0 0 
0 0 0 
0 0 0 
0 0 0 
0 0 0 
0 0 0 
0 0 0 
0 0 0 
0 0 0 
0 0 0 
0 0 0 
0 0 0 
0 0 0 
0 0 0 
0 0 0 
0 0 0 
0 0 0 
0 0 0 
0 0 0 
0 0 0 
0 0 0 
0 0 0 
0 0 0 
0 0 0 
0 0 0 
0 0 0 
0 0 0 
0 0 0 
0 0 0 
0 0 0 
0 0 0 
0 0 0 
0 0 0 
0 0 0 
0 0 0 
0 0 0 
0 0 0 
0 0 0 
0 0 0 
0 0 0 
0 0 0 
0 0 0 
0 0 0 
0 0 0 
0 0 0 
0 0 0 
0 0 0 
0 0 0 
0 0 0 
0 0 0 
0 0 0 
0 0 0 
0 0 0 
0 0 0 
0 0 0 
0 0 0 
0 0 0 
0 0 0 
0 0 0 
0 0 0 
0 0 0 
0 0 0 
0 0 0 
0 0 0 
0 0 0 
0 0 0 
0 0 0 
0 0 0 
0 0 0 
0.1555001 0.38586065 0.90935767 
0.1169306 0.37461764 0.9197766 
0.10144424 0.35694897 0.9285993 
0.10403976 0.3309215 0.9379055 
0.08991338 0.31381467 0.94521743 
0.07813617 0.29782292 0.95141804 
0.07172226 0.2807484 0.9570979 
0.06960134 0.26206478 0.9625371 
0.063504115 0.24559985 0.967289 
0.057146262 0.23015605 0.97147447 
0.052379355 0.21480101 0.97525233 
0.04891301 0.19937766 0.97870123 
0.044662245 0.18479298 0.9817622 
0.040216174 0.17092347 0.9844632 
0.036223426 0.15748899 0.98685616 
0.032666817 0.14443119 0.9889756 
0.029052144 0.1319577 0.9908295 
0.025495036 0.12005339 0.99244004 
0.022267831 0.10859619 0.9938365 
0.019476041 0.09749579 0.99504536 
0.016999306 0.08675665 0.9960845 
0.014627405 0.07645491 0.9969658 
0.012350375 0.066606686 0.99770296 
0.010269645 0.05717364 0.9983115 
0.008462985 0.048109535 0.99880624 
0.0069220928 0.03939498 0.9991998 
0.005561615 0.031048868 0.9995024 
0.0042871316 0.023110153 0.9997238 
0.0030856961 0.015595523 0.9998737 
0.0020115857 0.0084913345 0.9999619 
0.0011342706 0.0017662529 0.9999978 
0.00049923634 -0.00461322 0.9999893 
0.00011025439 -0.0106705 0.9999431 
-7.307991e-05 -0.01641076 0.99986535 
-0.00012691421 -0.021817472 0.99976194 
-0.00014293534 -0.026855662 0.9996394 
-0.00019589519 -0.03148382 0.99950427 
-0.00031301312 -0.035670403 0.99936366 
-0.00047717732 -0.039400324 0.9992234 
-0.0006489208 -0.042672765 0.99908894 
-0.0007872511 -0.045495998 0.9989643 
-0.00086165057 -0.047882743 0.99885267 
-0.0008560361 -0.049846847 0.9987565 
-0.00076798286 -0.051401284 0.9986778 
-0.0006059616 -0.052557025 0.99861777 
-0.00038621662 -0.05332252 0.9985773 
-0.00013001151 -0.053703457 0.9985569 
0.00013862342 -0.053702697 0.99855703 
0.00039478898 -0.053320233 0.9985774 
0.00061445916 -0.05255322 0.998618 
0.0007763681 -0.051395975 0.99867815 
0.00086427364 -0.049840055 0.9987569 
0.0008697082 -0.04787449 0.998853 
0.0007950961 -0.045486316 0.9989647 
0.0006565159 -0.042661685 0.9990894 
0.0004844945 -0.039387885 0.9992239 
0.00032002342 -0.035656635 0.9993641 
0.00020256799 -0.031468768 0.9995047 
0.00014924629 -0.026839375 0.9996398 
0.00013284353 -0.0218 0.9997624 
7.859883e-05 -0.016392155 0.9998657 
-0.00010516229 -0.010650819 0.9999433 
-0.0004945827 -0.0045925244 0.99998933 
-0.0011300683 0.0017878969 0.99999785 